<?xml version="1.0" encoding="UTF-8"?>

<!-- generated on 2022-02-13 22:28:30 by Eclipse SUMO sumo Version 1.12.0
<configuration xmlns:xsi="http://www.w3.org/2001/XMLSchema-instance" xsi:noNamespaceSchemaLocation="http://sumo.dlr.de/xsd/sumoConfiguration.xsd">

    <input>
        <net-file value="data/01/Tainan.net.xml"/>
        <route-files value="data/01/od_route_file.odtrips6.rou.xml"/>
        <additional-files value="data/01/Tainan.det.xml"/>
    </input>

    <output>
        <tripinfo-output value="Experiment_result/tripinfo6.xml"/>
    </output>

    <time>
        <begin value="0"/>
    </time>

    <traci_server>
        <remote-port value="63305"/>
    </traci_server>

</configuration>
-->

<tripinfos xmlns:xsi="http://www.w3.org/2001/XMLSchema-instance" xsi:noNamespaceSchemaLocation="http://sumo.dlr.de/xsd/tripinfo_file.xsd">
